TITLE = "  1.00000E+01 [h]"
VARIABLES="X [m]","Y [m]","Z [m]","Total DOM1 [M]","Total O2(aq) [M]","Total NO3- [M]","Total HCO3- [M]","Total H+ [M]","Total N2(aq) [M]","Material ID"
ZONE T="1.00000E+01", I=100, J=1, K=1, DATAPACKING=POINT
 5.000000E+00  5.000000E-01  5.000000E-01  3.455932E-04  2.610077E-04  1.999974E-04  2.421211E-05  1.899380E-05  2.655184E-02    1 
 1.500000E+01  5.000000E-01  5.000000E-01  3.407887E-04  2.562067E-04  1.999945E-04  2.901665E-05  2.379547E-05  2.655184E-02    1 
 2.500000E+01  5.000000E-01  5.000000E-01  3.359871E-04  2.514088E-04  1.999916E-04  3.381824E-05  2.859412E-05  2.655184E-02    1 
 3.500000E+01  5.000000E-01  5.000000E-01  3.311885E-04  2.466140E-04  1.999886E-04  3.861678E-05  3.338967E-05  2.655184E-02    1 
 4.500000E+01  5.000000E-01  5.000000E-01  3.263931E-04  2.418224E-04  1.999855E-04  4.341217E-05  3.818201E-05  2.655185E-02    1 
 5.500000E+01  5.000000E-01  5.000000E-01  3.216010E-04  2.370342E-04  1.999824E-04  4.820433E-05  4.297106E-05  2.655185E-02    1 
 6.500000E+01  5.000000E-01  5.000000E-01  3.168122E-04  2.322493E-04  1.999793E-04  5.299313E-05  4.775669E-05  2.655185E-02    1 
 7.500000E+01  5.000000E-01  5.000000E-01  3.120268E-04  2.274680E-04  1.999760E-04  5.777848E-05  5.253880E-05  2.655185E-02    1 
 8.500000E+01  5.000000E-01  5.000000E-01  3.072451E-04  2.226904E-04  1.999727E-04  6.256026E-05  5.731728E-05  2.655185E-02    1 
 9.500000E+01  5.000000E-01  5.000000E-01  3.024670E-04  2.179165E-04  1.999694E-04  6.733834E-05  6.209199E-05  2.655185E-02    1 
 1.050000E+02  5.000000E-01  5.000000E-01  2.976927E-04  2.131466E-04  1.999659E-04  7.211260E-05  6.686280E-05  2.655186E-02    1 
 1.150000E+02  5.000000E-01  5.000000E-01  2.929224E-04  2.083806E-04  1.999624E-04  7.688291E-05  7.162959E-05  2.655186E-02    1 
 1.250000E+02  5.000000E-01  5.000000E-01  2.881562E-04  2.036189E-04  1.999588E-04  8.164912E-05  7.639219E-05  2.655186E-02    1 
 1.350000E+02  5.000000E-01  5.000000E-01  2.833942E-04  1.988616E-04  1.999551E-04  8.641109E-05  8.115047E-05  2.655186E-02    1 
 1.450000E+02  5.000000E-01  5.000000E-01  2.786367E-04  1.941087E-04  1.999513E-04  9.116865E-05  8.590425E-05  2.655186E-02    1 
 1.550000E+02  5.000000E-01  5.000000E-01  2.738837E-04  1.893606E-04  1.999474E-04  9.592164E-05  9.065337E-05  2.655187E-02    1 
 1.650000E+02  5.000000E-01  5.000000E-01  2.691354E-04  1.846173E-04  1.999435E-04  1.006699E-04  9.539765E-05  2.655187E-02    1 
 1.750000E+02  5.000000E-01  5.000000E-01  2.643921E-04  1.798791E-04  1.999394E-04  1.054132E-04  1.001369E-04  2.655187E-02    1 
 1.850000E+02  5.000000E-01  5.000000E-01  2.596540E-04  1.751461E-04  1.999352E-04  1.101513E-04  1.048709E-04  2.655187E-02    1 
 1.950000E+02  5.000000E-01  5.000000E-01  2.549211E-04  1.704187E-04  1.999310E-04  1.148842E-04  1.095994E-04  2.655187E-02    1 
 2.050000E+02  5.000000E-01  5.000000E-01  2.501939E-04  1.656969E-04  1.999265E-04  1.196114E-04  1.143223E-04  2.655188E-02    1 
 2.150000E+02  5.000000E-01  5.000000E-01  2.454725E-04  1.609812E-04  1.999220E-04  1.243328E-04  1.190391E-04  2.655188E-02    1 
 2.250000E+02  5.000000E-01  5.000000E-01  2.407571E-04  1.562716E-04  1.999174E-04  1.290482E-04  1.237498E-04  2.655188E-02    1 
 2.350000E+02  5.000000E-01  5.000000E-01  2.360481E-04  1.515686E-04  1.999126E-04  1.337572E-04  1.284540E-04  2.655188E-02    1 
 2.450000E+02  5.000000E-01  5.000000E-01  2.313457E-04  1.468725E-04  1.999076E-04  1.384596E-04  1.331515E-04  2.655188E-02    1 
 2.550000E+02  5.000000E-01  5.000000E-01  2.266503E-04  1.421835E-04  1.999025E-04  1.431550E-04  1.378418E-04  2.655189E-02    1 
 2.650000E+02  5.000000E-01  5.000000E-01  2.219622E-04  1.375020E-04  1.998972E-04  1.478431E-04  1.425246E-04  2.655189E-02    1 
 2.750000E+02  5.000000E-01  5.000000E-01  2.172818E-04  1.328284E-04  1.998918E-04  1.525235E-04  1.471995E-04  2.655189E-02    1 
 2.850000E+02  5.000000E-01  5.000000E-01  2.126095E-04  1.281631E-04  1.998861E-04  1.571959E-04  1.518662E-04  2.655190E-02    1 
 2.950000E+02  5.000000E-01  5.000000E-01  2.079456E-04  1.235065E-04  1.998802E-04  1.618597E-04  1.565242E-04  2.655190E-02    1 
 3.050000E+02  5.000000E-01  5.000000E-01  2.032907E-04  1.188593E-04  1.998742E-04  1.665146E-04  1.611730E-04  2.655190E-02    1 
 3.150000E+02  5.000000E-01  5.000000E-01  1.986453E-04  1.142218E-04  1.998678E-04  1.711600E-04  1.658121E-04  2.655190E-02    1 
 3.250000E+02  5.000000E-01  5.000000E-01  1.940100E-04  1.095946E-04  1.998613E-04  1.757953E-04  1.704409E-04  2.655191E-02    1 
 3.350000E+02  5.000000E-01  5.000000E-01  1.893853E-04  1.049785E-04  1.998544E-04  1.804200E-04  1.750587E-04  2.655191E-02    1 
 3.450000E+02  5.000000E-01  5.000000E-01  1.847720E-04  1.003741E-04  1.998473E-04  1.850333E-04  1.796649E-04  2.655192E-02    1 
 3.550000E+02  5.000000E-01  5.000000E-01  1.801708E-04  9.578227E-05  1.998398E-04  1.896346E-04  1.842586E-04  2.655192E-02    1 
 3.650000E+02  5.000000E-01  5.000000E-01  1.755824E-04  9.120378E-05  1.998319E-04  1.942229E-04  1.888391E-04  2.655192E-02    1 
 3.750000E+02  5.000000E-01  5.000000E-01  1.710080E-04  8.663965E-05  1.998237E-04  1.987973E-04  1.934053E-04  2.655193E-02    1 
 3.850000E+02  5.000000E-01  5.000000E-01  1.664485E-04  8.209098E-05  1.998150E-04  2.033568E-04  1.979561E-04  2.655193E-02    1 
 3.950000E+02  5.000000E-01  5.000000E-01  1.619050E-04  7.755902E-05  1.998058E-04  2.079003E-04  2.024904E-04  2.655194E-02    1 
 4.050000E+02  5.000000E-01  5.000000E-01  1.573790E-04  7.304518E-05  1.997961E-04  2.124263E-04  2.070066E-04  2.655194E-02    1 
 4.150000E+02  5.000000E-01  5.000000E-01  1.528720E-04  6.855111E-05  1.997857E-04  2.169333E-04  2.115033E-04  2.655195E-02    1 
 4.250000E+02  5.000000E-01  5.000000E-01  1.483858E-04  6.407868E-05  1.997747E-04  2.214195E-04  2.159785E-04  2.655195E-02    1 
 4.350000E+02  5.000000E-01  5.000000E-01  1.439224E-04  5.963010E-05  1.997628E-04  2.258829E-04  2.204300E-04  2.655196E-02    1 
 4.450000E+02  5.000000E-01  5.000000E-01  1.394844E-04  5.520800E-05  1.997501E-04  2.303209E-04  2.248553E-04  2.655196E-02    1 
 4.550000E+02  5.000000E-01  5.000000E-01  1.350746E-04  5.081551E-05  1.997363E-04  2.347307E-04  2.292512E-04  2.655197E-02    1 
 4.650000E+02  5.000000E-01  5.000000E-01  1.306968E-04  4.645644E-05  1.997212E-04  2.391086E-04  2.336141E-04  2.655198E-02    1 
 4.750000E+02  5.000000E-01  5.000000E-01  1.263551E-04  4.213550E-05  1.997047E-04  2.434502E-04  2.379392E-04  2.655199E-02    1 
 4.850000E+02  5.000000E-01  5.000000E-01  1.220553E-04  3.785862E-05  1.996864E-04  2.477500E-04  2.422206E-04  2.655200E-02    1 
 4.950000E+02  5.000000E-01  5.000000E-01  1.178045E-04  3.363344E-05  1.996658E-04  2.520008E-04  2.464509E-04  2.655201E-02    1 
 5.050000E+02  5.000000E-01  5.000000E-01  1.136120E-04  2.947008E-05  1.996425E-04  2.561933E-04  2.506201E-04  2.655202E-02    1 
 5.150000E+02  5.000000E-01  5.000000E-01  1.094905E-04  2.538229E-05  1.996156E-04  2.603148E-04  2.547146E-04  2.655203E-02    1 
 5.250000E+02  5.000000E-01  5.000000E-01  1.054580E-04  2.138942E-05  1.995838E-04  2.643473E-04  2.587154E-04  2.655205E-02    1 
 5.350000E+02  5.000000E-01  5.000000E-01  1.015403E-04  1.751977E-05  1.995454E-04  2.682650E-04  2.625947E-04  2.655207E-02    1 
 5.450000E+02  5.000000E-01  5.000000E-01  9.777666E-05  1.381623E-05  1.994973E-04  2.720287E-04  2.663103E-04  2.655209E-02    1 
 5.550000E+02  5.000000E-01  5.000000E-01  9.422734E-05  1.034582E-05  1.994342E-04  2.755780E-04  2.697965E-04  2.655212E-02    1 
 5.650000E+02  5.000000E-01  5.000000E-01  9.098480E-05  7.212963E-06  1.993465E-04  2.788205E-04  2.729513E-04  2.655217E-02    1 
 5.750000E+02  5.000000E-01  5.000000E-01  8.817682E-05  4.567472E-06  1.992165E-04  2.816285E-04  2.756292E-04  2.655223E-02    1 
 5.850000E+02  5.000000E-01  5.000000E-01  8.592865E-05  2.571523E-06  1.990147E-04  2.838767E-04  2.776756E-04  2.655233E-02    1 
 5.950000E+02  5.000000E-01  5.000000E-01  8.425715E-05  1.287786E-06  1.987045E-04  2.855482E-04  2.790369E-04  2.655249E-02    1 
 6.050000E+02  5.000000E-01  5.000000E-01  8.301231E-05  5.904005E-07  1.982665E-04  2.867930E-04  2.798438E-04  2.655271E-02    1 
 6.150000E+02  5.000000E-01  5.000000E-01  8.199610E-05  2.571277E-07  1.977202E-04  2.878092E-04  2.803137E-04  2.655298E-02    1 
 6.250000E+02  5.000000E-01  5.000000E-01  8.108058E-05  1.092243E-07  1.971061E-04  2.887247E-04  2.806151E-04  2.655329E-02    1 
 6.350000E+02  5.000000E-01  5.000000E-01  8.020690E-05  4.589724E-08  1.964578E-04  2.895984E-04  2.808405E-04  2.655361E-02    1 
 6.450000E+02  5.000000E-01  5.000000E-01  7.935094E-05  1.920432E-08  1.957944E-04  2.904544E-04  2.810330E-04  2.655394E-02    1 
 6.550000E+02  5.000000E-01  5.000000E-01  7.850296E-05  8.024201E-09  1.951249E-04  2.913024E-04  2.812116E-04  2.655428E-02    1 
 6.650000E+02  5.000000E-01  5.000000E-01  7.765898E-05  3.352181E-09  1.944535E-04  2.921463E-04  2.813841E-04  2.655461E-02    1 
 6.750000E+02  5.000000E-01  5.000000E-01  7.681737E-05  1.400886E-09  1.937818E-04  2.929879E-04  2.815540E-04  2.655495E-02    1 
 6.850000E+02  5.000000E-01  5.000000E-01  7.597747E-05  5.857689E-10  1.931105E-04  2.938278E-04  2.817226E-04  2.655528E-02    1 
 6.950000E+02  5.000000E-01  5.000000E-01  7.513900E-05  2.450995E-10  1.924400E-04  2.946663E-04  2.818906E-04  2.655562E-02    1 
 7.050000E+02  5.000000E-01  5.000000E-01  7.430188E-05  1.026298E-10  1.917704E-04  2.955034E-04  2.820581E-04  2.655595E-02    1 
 7.150000E+02  5.000000E-01  5.000000E-01  7.346607E-05  4.300632E-11  1.911018E-04  2.963392E-04  2.822253E-04  2.655629E-02    1 
 7.250000E+02  5.000000E-01  5.000000E-01  7.263157E-05  1.803551E-11  1.904342E-04  2.971737E-04  2.823923E-04  2.655662E-02    1 
 7.350000E+02  5.000000E-01  5.000000E-01  7.179840E-05  7.569545E-12  1.897677E-04  2.980069E-04  2.825589E-04  2.655695E-02    1 
 7.450000E+02  5.000000E-01  5.000000E-01  7.096658E-05  3.179534E-12  1.891022E-04  2.988387E-04  2.827253E-04  2.655729E-02    1 
 7.550000E+02  5.000000E-01  5.000000E-01  7.013612E-05  1.336647E-12  1.884379E-04  2.996692E-04  2.828914E-04  2.655762E-02    1 
 7.650000E+02  5.000000E-01  5.000000E-01  6.930705E-05  5.623895E-13  1.877746E-04  3.004983E-04  2.830572E-04  2.655795E-02    1 
 7.750000E+02  5.000000E-01  5.000000E-01  6.847940E-05  2.368274E-13  1.871125E-04  3.013259E-04  2.832227E-04  2.655828E-02    1 
 7.850000E+02  5.000000E-01  5.000000E-01  6.765318E-05  9.981803E-14  1.864515E-04  3.021521E-04  2.833879E-04  2.655861E-02    1 
 7.950000E+02  5.000000E-01  5.000000E-01  6.682843E-05  4.210911E-14  1.857917E-04  3.029769E-04  2.835529E-04  2.655894E-02    1 
 8.050000E+02  5.000000E-01  5.000000E-01  6.600517E-05  1.778039E-14  1.851331E-04  3.038001E-04  2.837175E-04  2.655927E-02    1 
 8.150000E+02  5.000000E-01  5.000000E-01  6.518343E-05  7.514726E-15  1.844757E-04  3.046219E-04  2.838819E-04  2.655960E-02    1 
 8.250000E+02  5.000000E-01  5.000000E-01  6.436323E-05  3.179074E-15  1.838196E-04  3.054421E-04  2.840459E-04  2.655993E-02    1 
 8.350000E+02  5.000000E-01  5.000000E-01  6.354461E-05  1.346212E-15  1.831647E-04  3.062607E-04  2.842097E-04  2.656026E-02    1 
 8.450000E+02  5.000000E-01  5.000000E-01  6.272759E-05  5.706395E-16  1.825111E-04  3.070777E-04  2.843731E-04  2.656058E-02    1 
 8.550000E+02  5.000000E-01  5.000000E-01  6.191220E-05  2.421360E-16  1.818587E-04  3.078931E-04  2.845361E-04  2.656091E-02    1 
 8.650000E+02  5.000000E-01  5.000000E-01  6.109848E-05  1.028547E-16  1.812078E-04  3.087068E-04  2.846989E-04  2.656123E-02    1 
 8.750000E+02  5.000000E-01  5.000000E-01  6.028646E-05  4.374089E-17  1.805581E-04  3.095189E-04  2.848613E-04  2.656156E-02    1 
 8.850000E+02  5.000000E-01  5.000000E-01  5.947616E-05  1.862550E-17  1.799099E-04  3.103291E-04  2.850234E-04  2.656188E-02    1 
 8.950000E+02  5.000000E-01  5.000000E-01  5.866763E-05  7.943452E-18  1.792631E-04  3.111377E-04  2.851851E-04  2.656221E-02    1 
 9.050000E+02  5.000000E-01  5.000000E-01  5.786090E-05  3.395213E-18  1.786177E-04  3.119444E-04  2.853464E-04  2.656253E-02    1 
 9.150000E+02  5.000000E-01  5.000000E-01  5.705600E-05  1.456484E-18  1.779738E-04  3.127493E-04  2.855074E-04  2.656285E-02    1 
 9.250000E+02  5.000000E-01  5.000000E-01  5.625297E-05  6.291388E-19  1.773314E-04  3.135523E-04  2.856680E-04  2.656317E-02    1 
 9.350000E+02  5.000000E-01  5.000000E-01  5.545185E-05  2.756598E-19  1.766905E-04  3.143535E-04  2.858282E-04  2.656349E-02    1 
 9.450000E+02  5.000000E-01  5.000000E-01  5.465267E-05  1.244571E-19  1.760511E-04  3.151526E-04  2.859880E-04  2.656381E-02    1 
 9.550000E+02  5.000000E-01  5.000000E-01  5.385549E-05  5.970009E-20  1.754134E-04  3.159498E-04  2.861475E-04  2.656413E-02    1 
 9.650000E+02  5.000000E-01  5.000000E-01  5.306039E-05  3.193128E-20  1.747773E-04  3.167449E-04  2.863065E-04  2.656445E-02    1 
 9.750000E+02  5.000000E-01  5.000000E-01  5.226789E-05  2.000836E-20  1.741433E-04  3.175374E-04  2.864650E-04  2.656477E-02    1 
 9.850000E+02  5.000000E-01  5.000000E-01  5.148338E-05  1.488374E-20  1.735157E-04  3.183219E-04  2.866219E-04  2.656508E-02    1 
 9.950000E+02  5.000000E-01  5.000000E-01  5.076589E-05  1.271406E-20  1.729417E-04  3.190394E-04  2.867654E-04  2.656537E-02    1 
